<?xml version="1.0" encoding="UTF-8"?>

<!-- generated on 2023-10-26 10:02:39 by Eclipse SUMO GUI Version 1.12.0
<configuration xmlns:xsi="http://www.w3.org/2001/XMLSchema-instance" xsi:noNamespaceSchemaLocation="http://sumo.dlr.de/xsd/sumoConfiguration.xsd">

    <input>
        <net-file value="test_output.net.xml"/>
        <route-files value="test_output.rou.xml"/>
        <additional-files value="test_output.det.xml"/>
    </input>

    <time>
        <end value="6001"/>
    </time>

    <report>
        <no-warnings value="true"/>
    </report>

    <traci_server>
        <remote-port value="33717"/>
    </traci_server>

    <random_number>
        <random value="true"/>
    </random_number>

</configuration>
-->

<detector xmlns:xsi="http://www.w3.org/2001/XMLSchema-instance" xsi:noNamespaceSchemaLocation="http://sumo.dlr.de/xsd/det_e2_file.xsd">
   <interval begin="0.00" end="692.00" id="detector_x0-y1_x1-y1" sampledSeconds="120.14" nVehEntered="24" nVehLeft="24" nVehSeen="24" meanSpeed="2.98" meanTimeLoss="4.31" meanOccupancy="7.12" maxOccupancy="65.59" meanMaxJamLengthInVehicles="0.07" meanMaxJamLengthInMeters="0.35" maxJamLengthInVehicles="2" maxJamLengthInMeters="9.80" jamLengthInVehiclesSum="50" jamLengthInMetersSum="239.99" meanHaltingDuration="7.25" maxHaltingDuration="13.00" haltingDurationSum="58.00" meanIntervalHaltingDuration="7.25" maxIntervalHaltingDuration="13.00" intervalHaltingDurationSum="58.00" startedHalts="8.00" meanVehicleNumber="0.21" maxVehicleNumber="2" />
   <interval begin="0.00" end="692.00" id="detector_x0-y2_x1-y2" sampledSeconds="84.41" nVehEntered="18" nVehLeft="18" nVehSeen="18" meanSpeed="3.18" meanTimeLoss="3.96" meanOccupancy="5.05" maxOccupancy="51.79" meanMaxJamLengthInVehicles="0.05" meanMaxJamLengthInMeters="0.26" maxJamLengthInVehicles="1" maxJamLengthInMeters="5.00" jamLengthInVehiclesSum="37" jamLengthInMetersSum="179.78" meanHaltingDuration="7.17" maxHaltingDuration="13.00" haltingDurationSum="43.00" meanIntervalHaltingDuration="7.17" maxIntervalHaltingDuration="13.00" intervalHaltingDurationSum="43.00" startedHalts="6.00" meanVehicleNumber="0.15" maxVehicleNumber="2" />
   <interval begin="0.00" end="692.00" id="detector_x0-y3_x1-y3" sampledSeconds="215.67" nVehEntered="17" nVehLeft="17" nVehSeen="17" meanSpeed="1.17" meanTimeLoss="11.80" meanOccupancy="12.16" maxOccupancy="65.63" meanMaxJamLengthInVehicles="0.20" meanMaxJamLengthInMeters="0.95" maxJamLengthInVehicles="2" maxJamLengthInMeters="9.90" jamLengthInVehiclesSum="140" jamLengthInMetersSum="657.17" meanHaltingDuration="11.00" maxHaltingDuration="27.00" haltingDurationSum="154.00" meanIntervalHaltingDuration="11.00" maxIntervalHaltingDuration="27.00" intervalHaltingDurationSum="154.00" startedHalts="14.00" meanVehicleNumber="0.34" maxVehicleNumber="2" />
   <interval begin="0.00" end="692.00" id="detector_x1-y0_x1-y1" sampledSeconds="225.36" nVehEntered="28" nVehLeft="28" nVehSeen="28" meanSpeed="1.85" meanTimeLoss="7.10" meanOccupancy="12.99" maxOccupancy="65.63" meanMaxJamLengthInVehicles="0.19" meanMaxJamLengthInMeters="0.91" maxJamLengthInVehicles="2" maxJamLengthInMeters="9.90" jamLengthInVehiclesSum="132" jamLengthInMetersSum="629.61" meanHaltingDuration="12.00" maxHaltingDuration="18.00" haltingDurationSum="144.00" meanIntervalHaltingDuration="12.00" maxIntervalHaltingDuration="18.00" intervalHaltingDurationSum="144.00" startedHalts="12.00" meanVehicleNumber="0.37" maxVehicleNumber="2" />
   <interval begin="0.00" end="692.00" id="detector_x1-y1_x2-y1" sampledSeconds="198.58" nVehEntered="25" nVehLeft="25" nVehSeen="25" meanSpeed="1.88" meanTimeLoss="7.20" meanOccupancy="10.53" maxOccupancy="65.62" meanMaxJamLengthInVehicles="0.15" meanMaxJamLengthInMeters="0.72" maxJamLengthInVehicles="2" maxJamLengthInMeters="9.90" jamLengthInVehiclesSum="107" jamLengthInMetersSum="495.94" meanHaltingDuration="9.92" maxHaltingDuration="17.00" haltingDurationSum="119.00" meanIntervalHaltingDuration="9.92" maxIntervalHaltingDuration="17.00" intervalHaltingDurationSum="119.00" startedHalts="12.00" meanVehicleNumber="0.32" maxVehicleNumber="2" />
   <interval begin="0.00" end="692.00" id="detector_x1-y1_x1-y2" sampledSeconds="262.47" nVehEntered="25" nVehLeft="23" nVehSeen="25" meanSpeed="1.36" meanTimeLoss="9.85" meanOccupancy="13.46" maxOccupancy="64.97" meanMaxJamLengthInVehicles="0.23" meanMaxJamLengthInMeters="1.03" maxJamLengthInVehicles="2" maxJamLengthInMeters="10.00" jamLengthInVehiclesSum="158" jamLengthInMetersSum="710.49" meanHaltingDuration="12.29" maxHaltingDuration="18.00" haltingDurationSum="172.00" meanIntervalHaltingDuration="12.29" maxIntervalHaltingDuration="18.00" intervalHaltingDurationSum="172.00" startedHalts="14.00" meanVehicleNumber="0.42" maxVehicleNumber="2" />
   <interval begin="0.00" end="692.00" id="detector_x1-y2_x2-y2" sampledSeconds="81.67" nVehEntered="18" nVehLeft="18" nVehSeen="18" meanSpeed="3.28" meanTimeLoss="3.81" meanOccupancy="4.87" maxOccupancy="50.53" meanMaxJamLengthInVehicles="0.04" meanMaxJamLengthInMeters="0.21" maxJamLengthInVehicles="1" maxJamLengthInMeters="5.00" jamLengthInVehiclesSum="30" jamLengthInMetersSum="145.59" meanHaltingDuration="5.29" maxHaltingDuration="14.00" haltingDurationSum="37.00" meanIntervalHaltingDuration="5.29" maxIntervalHaltingDuration="14.00" intervalHaltingDurationSum="37.00" startedHalts="7.00" meanVehicleNumber="0.14" maxVehicleNumber="2" />
   <interval begin="0.00" end="692.00" id="detector_x1-y2_x1-y3" sampledSeconds="142.74" nVehEntered="21" nVehLeft="21" nVehSeen="21" meanSpeed="2.19" meanTimeLoss="5.94" meanOccupancy="8.50" maxOccupancy="74.43" meanMaxJamLengthInVehicles="0.11" meanMaxJamLengthInMeters="0.52" maxJamLengthInVehicles="2" maxJamLengthInMeters="9.90" jamLengthInVehiclesSum="74" jamLengthInMetersSum="357.94" meanHaltingDuration="7.17" maxHaltingDuration="17.00" haltingDurationSum="86.00" meanIntervalHaltingDuration="7.17" maxIntervalHaltingDuration="17.00" intervalHaltingDurationSum="86.00" startedHalts="12.00" meanVehicleNumber="0.23" maxVehicleNumber="2" />
   <interval begin="0.00" end="692.00" id="detector_x1-y2_x1-y1" sampledSeconds="207.94" nVehEntered="18" nVehLeft="18" nVehSeen="18" meanSpeed="1.30" meanTimeLoss="10.87" meanOccupancy="12.43" maxOccupancy="64.97" meanMaxJamLengthInVehicles="0.19" meanMaxJamLengthInMeters="0.92" maxJamLengthInVehicles="2" maxJamLengthInMeters="10.00" jamLengthInVehiclesSum="132" jamLengthInMetersSum="636.68" meanHaltingDuration="10.43" maxHaltingDuration="18.00" haltingDurationSum="146.00" meanIntervalHaltingDuration="10.43" maxIntervalHaltingDuration="18.00" intervalHaltingDurationSum="146.00" startedHalts="14.00" meanVehicleNumber="0.32" maxVehicleNumber="2" />
   <interval begin="0.00" end="692.00" id="detector_x1-y3_x2-y3" sampledSeconds="111.48" nVehEntered="15" nVehLeft="14" nVehSeen="15" meanSpeed="1.88" meanTimeLoss="6.75" meanOccupancy="6.89" maxOccupancy="72.54" meanMaxJamLengthInVehicles="0.10" meanMaxJamLengthInMeters="0.46" maxJamLengthInVehicles="2" maxJamLengthInMeters="9.90" jamLengthInVehiclesSum="70" jamLengthInMetersSum="319.83" meanHaltingDuration="11.00" maxHaltingDuration="23.00" haltingDurationSum="77.00" meanIntervalHaltingDuration="11.00" maxIntervalHaltingDuration="23.00" intervalHaltingDurationSum="77.00" startedHalts="7.00" meanVehicleNumber="0.18" maxVehicleNumber="2" />
   <interval begin="0.00" end="692.00" id="detector_x1-y3_x1-y2" sampledSeconds="81.51" nVehEntered="18" nVehLeft="18" nVehSeen="18" meanSpeed="3.29" meanTimeLoss="3.85" meanOccupancy="4.84" maxOccupancy="50.51" meanMaxJamLengthInVehicles="0.06" meanMaxJamLengthInMeters="0.27" maxJamLengthInVehicles="1" maxJamLengthInMeters="5.00" jamLengthInVehiclesSum="39" jamLengthInMetersSum="184.85" meanHaltingDuration="7.33" maxHaltingDuration="13.00" haltingDurationSum="44.00" meanIntervalHaltingDuration="7.33" maxIntervalHaltingDuration="13.00" intervalHaltingDurationSum="44.00" startedHalts="7.00" meanVehicleNumber="0.14" maxVehicleNumber="1" />
   <interval begin="0.00" end="692.00" id="detector_x1-y4_x1-y3" sampledSeconds="137.50" nVehEntered="16" nVehLeft="14" nVehSeen="16" meanSpeed="1.59" meanTimeLoss="7.82" meanOccupancy="8.27" maxOccupancy="65.64" meanMaxJamLengthInVehicles="0.12" meanMaxJamLengthInMeters="0.56" maxJamLengthInVehicles="2" maxJamLengthInMeters="9.90" jamLengthInVehiclesSum="82" jamLengthInMetersSum="385.03" meanHaltingDuration="8.18" maxHaltingDuration="18.00" haltingDurationSum="90.00" meanIntervalHaltingDuration="8.18" maxIntervalHaltingDuration="18.00" intervalHaltingDurationSum="90.00" startedHalts="12.00" meanVehicleNumber="0.22" maxVehicleNumber="2" />
   <interval begin="0.00" end="692.00" id="detector_x2-y0_x2-y1" sampledSeconds="149.62" nVehEntered="18" nVehLeft="18" nVehSeen="18" meanSpeed="1.79" meanTimeLoss="7.50" meanOccupancy="8.97" maxOccupancy="65.51" meanMaxJamLengthInVehicles="0.11" meanMaxJamLengthInMeters="0.51" maxJamLengthInVehicles="2" maxJamLengthInMeters="9.90" jamLengthInVehiclesSum="76" jamLengthInMetersSum="354.46" meanHaltingDuration="7.08" maxHaltingDuration="16.00" haltingDurationSum="85.00" meanIntervalHaltingDuration="7.08" maxIntervalHaltingDuration="16.00" intervalHaltingDurationSum="85.00" startedHalts="13.00" meanVehicleNumber="0.24" maxVehicleNumber="2" />
   <interval begin="0.00" end="692.00" id="detector_x2-y1_x3-y1" sampledSeconds="150.34" nVehEntered="20" nVehLeft="20" nVehSeen="20" meanSpeed="2.00" meanTimeLoss="6.64" meanOccupancy="8.12" maxOccupancy="64.97" meanMaxJamLengthInVehicles="0.11" meanMaxJamLengthInMeters="0.51" maxJamLengthInVehicles="2" maxJamLengthInMeters="10.00" jamLengthInVehiclesSum="76" jamLengthInMetersSum="354.36" meanHaltingDuration="6.85" maxHaltingDuration="15.00" haltingDurationSum="89.00" meanIntervalHaltingDuration="6.85" maxIntervalHaltingDuration="15.00" intervalHaltingDurationSum="89.00" startedHalts="13.00" meanVehicleNumber="0.25" maxVehicleNumber="2" />
   <interval begin="0.00" end="692.00" id="detector_x2-y1_x1-y1" sampledSeconds="163.55" nVehEntered="21" nVehLeft="21" nVehSeen="21" meanSpeed="1.91" meanTimeLoss="6.78" meanOccupancy="9.62" maxOccupancy="65.62" meanMaxJamLengthInVehicles="0.12" meanMaxJamLengthInMeters="0.55" maxJamLengthInVehicles="2" maxJamLengthInMeters="9.90" jamLengthInVehiclesSum="80" jamLengthInMetersSum="383.80" meanHaltingDuration="7.15" maxHaltingDuration="15.00" haltingDurationSum="93.00" meanIntervalHaltingDuration="7.15" maxIntervalHaltingDuration="15.00" intervalHaltingDurationSum="93.00" startedHalts="13.00" meanVehicleNumber="0.27" maxVehicleNumber="2" />
   <interval begin="0.00" end="692.00" id="detector_x2-y1_x2-y2" sampledSeconds="97.57" nVehEntered="16" nVehLeft="16" nVehSeen="16" meanSpeed="2.46" meanTimeLoss="5.38" meanOccupancy="5.69" maxOccupancy="64.61" meanMaxJamLengthInVehicles="0.06" meanMaxJamLengthInMeters="0.30" maxJamLengthInVehicles="2" maxJamLengthInMeters="10.00" jamLengthInVehiclesSum="42" jamLengthInMetersSum="205.15" meanHaltingDuration="5.67" maxHaltingDuration="11.00" haltingDurationSum="51.00" meanIntervalHaltingDuration="5.67" maxIntervalHaltingDuration="11.00" intervalHaltingDurationSum="51.00" startedHalts="9.00" meanVehicleNumber="0.16" maxVehicleNumber="2" />
   <interval begin="0.00" end="692.00" id="detector_x2-y2_x3-y2" sampledSeconds="114.71" nVehEntered="14" nVehLeft="14" nVehSeen="14" meanSpeed="1.83" meanTimeLoss="7.30" meanOccupancy="6.29" maxOccupancy="64.97" meanMaxJamLengthInVehicles="0.08" meanMaxJamLengthInMeters="0.38" maxJamLengthInVehicles="2" maxJamLengthInMeters="9.77" jamLengthInVehiclesSum="57" jamLengthInMetersSum="261.99" meanHaltingDuration="6.70" maxHaltingDuration="15.00" haltingDurationSum="67.00" meanIntervalHaltingDuration="6.70" maxIntervalHaltingDuration="15.00" intervalHaltingDurationSum="67.00" startedHalts="10.00" meanVehicleNumber="0.18" maxVehicleNumber="2" />
   <interval begin="0.00" end="692.00" id="detector_x2-y2_x1-y2" sampledSeconds="138.17" nVehEntered="19" nVehLeft="19" nVehSeen="19" meanSpeed="2.05" meanTimeLoss="6.57" meanOccupancy="7.98" maxOccupancy="65.62" meanMaxJamLengthInVehicles="0.11" meanMaxJamLengthInMeters="0.54" maxJamLengthInVehicles="2" maxJamLengthInMeters="9.90" jamLengthInVehiclesSum="78" jamLengthInMetersSum="371.36" meanHaltingDuration="9.67" maxHaltingDuration="17.00" haltingDurationSum="87.00" meanIntervalHaltingDuration="9.67" maxIntervalHaltingDuration="17.00" intervalHaltingDurationSum="87.00" startedHalts="9.00" meanVehicleNumber="0.23" maxVehicleNumber="2" />
   <interval begin="0.00" end="692.00" id="detector_x2-y2_x2-y3" sampledSeconds="80.11" nVehEntered="16" nVehLeft="16" nVehSeen="16" meanSpeed="2.98" meanTimeLoss="4.15" meanOccupancy="4.64" maxOccupancy="50.71" meanMaxJamLengthInVehicles="0.05" meanMaxJamLengthInMeters="0.21" maxJamLengthInVehicles="1" maxJamLengthInMeters="5.00" jamLengthInVehiclesSum="34" jamLengthInMetersSum="145.84" meanHaltingDuration="7.80" maxHaltingDuration="18.00" haltingDurationSum="39.00" meanIntervalHaltingDuration="7.80" maxIntervalHaltingDuration="18.00" intervalHaltingDurationSum="39.00" startedHalts="5.00" meanVehicleNumber="0.14" maxVehicleNumber="2" />
   <interval begin="0.00" end="692.00" id="detector_x2-y2_x2-y1" sampledSeconds="110.01" nVehEntered="14" nVehLeft="14" nVehSeen="14" meanSpeed="1.91" meanTimeLoss="7.03" meanOccupancy="6.07" maxOccupancy="66.41" meanMaxJamLengthInVehicles="0.09" meanMaxJamLengthInMeters="0.39" maxJamLengthInVehicles="2" maxJamLengthInMeters="10.00" jamLengthInVehiclesSum="59" jamLengthInMetersSum="271.69" meanHaltingDuration="9.43" maxHaltingDuration="22.00" haltingDurationSum="66.00" meanIntervalHaltingDuration="9.43" maxIntervalHaltingDuration="22.00" intervalHaltingDurationSum="66.00" startedHalts="7.00" meanVehicleNumber="0.18" maxVehicleNumber="2" />
   <interval begin="0.00" end="692.00" id="detector_x2-y3_x3-y3" sampledSeconds="204.49" nVehEntered="17" nVehLeft="17" nVehSeen="17" meanSpeed="1.25" meanTimeLoss="11.32" meanOccupancy="10.82" maxOccupancy="70.04" meanMaxJamLengthInVehicles="0.18" meanMaxJamLengthInMeters="0.83" maxJamLengthInVehicles="2" maxJamLengthInMeters="10.00" jamLengthInVehiclesSum="123" jamLengthInMetersSum="573.09" meanHaltingDuration="8.64" maxHaltingDuration="18.00" haltingDurationSum="121.00" meanIntervalHaltingDuration="8.64" maxIntervalHaltingDuration="18.00" intervalHaltingDurationSum="121.00" startedHalts="15.00" meanVehicleNumber="0.32" maxVehicleNumber="2" />
   <interval begin="0.00" end="692.00" id="detector_x2-y3_x1-y3" sampledSeconds="135.05" nVehEntered="21" nVehLeft="21" nVehSeen="21" meanSpeed="2.32" meanTimeLoss="5.68" meanOccupancy="7.73" maxOccupancy="65.62" meanMaxJamLengthInVehicles="0.10" meanMaxJamLengthInMeters="0.46" maxJamLengthInVehicles="2" maxJamLengthInMeters="9.90" jamLengthInVehiclesSum="68" jamLengthInMetersSum="320.69" meanHaltingDuration="7.80" maxHaltingDuration="19.00" haltingDurationSum="78.00" meanIntervalHaltingDuration="7.80" maxIntervalHaltingDuration="19.00" intervalHaltingDurationSum="78.00" startedHalts="10.00" meanVehicleNumber="0.23" maxVehicleNumber="2" />
   <interval begin="0.00" end="692.00" id="detector_x2-y3_x2-y2" sampledSeconds="142.41" nVehEntered="16" nVehLeft="15" nVehSeen="16" meanSpeed="1.64" meanTimeLoss="8.14" meanOccupancy="7.92" maxOccupancy="70.13" meanMaxJamLengthInVehicles="0.12" meanMaxJamLengthInMeters="0.54" maxJamLengthInVehicles="2" maxJamLengthInMeters="9.90" jamLengthInVehiclesSum="81" jamLengthInMetersSum="370.57" meanHaltingDuration="7.91" maxHaltingDuration="14.00" haltingDurationSum="87.00" meanIntervalHaltingDuration="7.91" maxIntervalHaltingDuration="14.00" intervalHaltingDurationSum="87.00" startedHalts="12.00" meanVehicleNumber="0.23" maxVehicleNumber="2" />
   <interval begin="0.00" end="692.00" id="detector_x2-y4_x2-y3" sampledSeconds="177.00" nVehEntered="19" nVehLeft="19" nVehSeen="19" meanSpeed="1.60" meanTimeLoss="8.48" meanOccupancy="10.23" maxOccupancy="65.64" meanMaxJamLengthInVehicles="0.14" meanMaxJamLengthInMeters="0.65" maxJamLengthInVehicles="2" maxJamLengthInMeters="9.90" jamLengthInVehiclesSum="96" jamLengthInMetersSum="451.91" meanHaltingDuration="7.86" maxHaltingDuration="17.00" haltingDurationSum="110.00" meanIntervalHaltingDuration="7.86" maxIntervalHaltingDuration="17.00" intervalHaltingDurationSum="110.00" startedHalts="14.00" meanVehicleNumber="0.28" maxVehicleNumber="2" />
   <interval begin="0.00" end="692.00" id="detector_x3-y0_x3-y1" sampledSeconds="137.67" nVehEntered="20" nVehLeft="20" nVehSeen="20" meanSpeed="2.16" meanTimeLoss="6.10" meanOccupancy="7.96" maxOccupancy="64.76" meanMaxJamLengthInVehicles="0.10" meanMaxJamLengthInMeters="0.42" maxJamLengthInVehicles="1" maxJamLengthInMeters="5.00" jamLengthInVehiclesSum="69" jamLengthInMetersSum="287.34" meanHaltingDuration="6.17" maxHaltingDuration="22.00" haltingDurationSum="74.00" meanIntervalHaltingDuration="6.17" maxIntervalHaltingDuration="22.00" intervalHaltingDurationSum="74.00" startedHalts="13.00" meanVehicleNumber="0.23" maxVehicleNumber="2" />
   <interval begin="0.00" end="692.00" id="detector_x3-y1_x2-y1" sampledSeconds="82.42" nVehEntered="17" nVehLeft="17" nVehSeen="17" meanSpeed="3.09" meanTimeLoss="4.06" meanOccupancy="4.45" maxOccupancy="64.97" meanMaxJamLengthInVehicles="0.04" meanMaxJamLengthInMeters="0.19" maxJamLengthInVehicles="2" maxJamLengthInMeters="10.00" jamLengthInVehiclesSum="29" jamLengthInMetersSum="130.57" meanHaltingDuration="5.14" maxHaltingDuration="9.00" haltingDurationSum="36.00" meanIntervalHaltingDuration="5.14" maxIntervalHaltingDuration="9.00" intervalHaltingDurationSum="36.00" startedHalts="7.00" meanVehicleNumber="0.14" maxVehicleNumber="2" />
   <interval begin="0.00" end="692.00" id="detector_x3-y1_x3-y2" sampledSeconds="197.59" nVehEntered="22" nVehLeft="21" nVehSeen="22" meanSpeed="1.64" meanTimeLoss="8.18" meanOccupancy="10.88" maxOccupancy="64.97" meanMaxJamLengthInVehicles="0.17" meanMaxJamLengthInMeters="0.77" maxJamLengthInVehicles="2" maxJamLengthInMeters="10.00" jamLengthInVehiclesSum="117" jamLengthInMetersSum="535.93" meanHaltingDuration="9.36" maxHaltingDuration="18.00" haltingDurationSum="131.00" meanIntervalHaltingDuration="9.36" maxIntervalHaltingDuration="18.00" intervalHaltingDurationSum="131.00" startedHalts="14.00" meanVehicleNumber="0.32" maxVehicleNumber="2" />
   <interval begin="0.00" end="692.00" id="detector_x3-y2_x2-y2" sampledSeconds="87.72" nVehEntered="14" nVehLeft="14" nVehSeen="14" meanSpeed="2.39" meanTimeLoss="5.60" meanOccupancy="5.14" maxOccupancy="63.29" meanMaxJamLengthInVehicles="0.05" meanMaxJamLengthInMeters="0.26" maxJamLengthInVehicles="2" maxJamLengthInMeters="10.00" jamLengthInVehiclesSum="37" jamLengthInMetersSum="179.60" meanHaltingDuration="5.62" maxHaltingDuration="11.00" haltingDurationSum="45.00" meanIntervalHaltingDuration="5.62" maxIntervalHaltingDuration="11.00" intervalHaltingDurationSum="45.00" startedHalts="8.00" meanVehicleNumber="0.15" maxVehicleNumber="2" />
   <interval begin="0.00" end="692.00" id="detector_x3-y2_x3-y3" sampledSeconds="139.73" nVehEntered="16" nVehLeft="15" nVehSeen="16" meanSpeed="1.66" meanTimeLoss="8.02" meanOccupancy="8.60" maxOccupancy="65.63" meanMaxJamLengthInVehicles="0.12" meanMaxJamLengthInMeters="0.56" maxJamLengthInVehicles="2" maxJamLengthInMeters="9.76" jamLengthInVehiclesSum="80" jamLengthInMetersSum="388.60" meanHaltingDuration="9.00" maxHaltingDuration="18.00" haltingDurationSum="90.00" meanIntervalHaltingDuration="9.00" maxIntervalHaltingDuration="18.00" intervalHaltingDurationSum="90.00" startedHalts="10.00" meanVehicleNumber="0.22" maxVehicleNumber="2" />
   <interval begin="0.00" end="692.00" id="detector_x3-y2_x3-y1" sampledSeconds="132.28" nVehEntered="18" nVehLeft="17" nVehSeen="18" meanSpeed="2.00" meanTimeLoss="6.37" meanOccupancy="6.91" maxOccupancy="74.95" meanMaxJamLengthInVehicles="0.10" meanMaxJamLengthInMeters="0.45" maxJamLengthInVehicles="2" maxJamLengthInMeters="10.00" jamLengthInVehiclesSum="72" jamLengthInMetersSum="310.56" meanHaltingDuration="8.11" maxHaltingDuration="16.00" haltingDurationSum="73.00" meanIntervalHaltingDuration="8.11" maxIntervalHaltingDuration="16.00" intervalHaltingDurationSum="73.00" startedHalts="11.00" meanVehicleNumber="0.22" maxVehicleNumber="2" />
   <interval begin="0.00" end="692.00" id="detector_x3-y3_x2-y3" sampledSeconds="217.64" nVehEntered="24" nVehLeft="23" nVehSeen="24" meanSpeed="1.63" meanTimeLoss="8.30" meanOccupancy="11.90" maxOccupancy="64.97" meanMaxJamLengthInVehicles="0.19" meanMaxJamLengthInMeters="0.84" maxJamLengthInVehicles="2" maxJamLengthInMeters="10.00" jamLengthInVehiclesSum="130" jamLengthInMetersSum="584.43" meanHaltingDuration="10.54" maxHaltingDuration="17.00" haltingDurationSum="137.00" meanIntervalHaltingDuration="10.54" maxIntervalHaltingDuration="17.00" intervalHaltingDurationSum="137.00" startedHalts="14.00" meanVehicleNumber="0.35" maxVehicleNumber="2" />
   <interval begin="0.00" end="692.00" id="detector_x3-y3_x3-y2" sampledSeconds="144.26" nVehEntered="21" nVehLeft="20" nVehSeen="21" meanSpeed="2.13" meanTimeLoss="6.15" meanOccupancy="8.74" maxOccupancy="65.63" meanMaxJamLengthInVehicles="0.12" meanMaxJamLengthInMeters="0.57" maxJamLengthInVehicles="2" maxJamLengthInMeters="9.90" jamLengthInVehiclesSum="82" jamLengthInMetersSum="397.06" meanHaltingDuration="10.11" maxHaltingDuration="17.00" haltingDurationSum="91.00" meanIntervalHaltingDuration="10.11" maxIntervalHaltingDuration="17.00" intervalHaltingDurationSum="91.00" startedHalts="9.00" meanVehicleNumber="0.24" maxVehicleNumber="2" />
   <interval begin="0.00" end="692.00" id="detector_x3-y4_x3-y3" sampledSeconds="262.33" nVehEntered="30" nVehLeft="30" nVehSeen="30" meanSpeed="1.70" meanTimeLoss="7.85" meanOccupancy="14.96" maxOccupancy="65.64" meanMaxJamLengthInVehicles="0.21" meanMaxJamLengthInMeters="0.98" maxJamLengthInVehicles="2" maxJamLengthInMeters="9.90" jamLengthInVehiclesSum="147" jamLengthInMetersSum="678.54" meanHaltingDuration="9.44" maxHaltingDuration="17.00" haltingDurationSum="151.00" meanIntervalHaltingDuration="9.44" maxIntervalHaltingDuration="17.00" intervalHaltingDurationSum="151.00" startedHalts="17.00" meanVehicleNumber="0.42" maxVehicleNumber="2" />
   <interval begin="0.00" end="692.00" id="detector_x4-y1_x3-y1" sampledSeconds="106.01" nVehEntered="15" nVehLeft="14" nVehSeen="15" meanSpeed="2.06" meanTimeLoss="6.19" meanOccupancy="6.01" maxOccupancy="65.64" meanMaxJamLengthInVehicles="0.07" meanMaxJamLengthInMeters="0.32" maxJamLengthInVehicles="2" maxJamLengthInMeters="9.90" jamLengthInVehiclesSum="49" jamLengthInMetersSum="222.45" meanHaltingDuration="6.44" maxHaltingDuration="15.00" haltingDurationSum="58.00" meanIntervalHaltingDuration="6.44" maxIntervalHaltingDuration="15.00" intervalHaltingDurationSum="58.00" startedHalts="9.00" meanVehicleNumber="0.17" maxVehicleNumber="2" />
   <interval begin="0.00" end="692.00" id="detector_x4-y2_x3-y2" sampledSeconds="55.86" nVehEntered="12" nVehLeft="12" nVehSeen="12" meanSpeed="3.20" meanTimeLoss="3.87" meanOccupancy="3.18" maxOccupancy="50.50" meanMaxJamLengthInVehicles="0.02" meanMaxJamLengthInMeters="0.10" maxJamLengthInVehicles="1" maxJamLengthInMeters="5.00" jamLengthInVehiclesSum="15" jamLengthInMetersSum="70.97" meanHaltingDuration="3.50" maxHaltingDuration="4.00" haltingDurationSum="21.00" meanIntervalHaltingDuration="3.50" maxIntervalHaltingDuration="4.00" intervalHaltingDurationSum="21.00" startedHalts="6.00" meanVehicleNumber="0.10" maxVehicleNumber="1" />
   <interval begin="0.00" end="692.00" id="detector_x4-y3_x3-y3" sampledSeconds="190.80" nVehEntered="26" nVehLeft="26" nVehSeen="26" meanSpeed="2.03" meanTimeLoss="6.49" meanOccupancy="10.95" maxOccupancy="65.64" meanMaxJamLengthInVehicles="0.14" meanMaxJamLengthInMeters="0.66" maxJamLengthInVehicles="2" maxJamLengthInMeters="9.90" jamLengthInVehiclesSum="99" jamLengthInMetersSum="456.52" meanHaltingDuration="9.25" maxHaltingDuration="17.00" haltingDurationSum="111.00" meanIntervalHaltingDuration="9.25" maxIntervalHaltingDuration="17.00" intervalHaltingDurationSum="111.00" startedHalts="12.00" meanVehicleNumber="0.31" maxVehicleNumber="2" />
</detector>
